
units	metal
atom_style atomic
newton on

read_data au20_crystal.data
Reading data file ...
  orthogonal box = (0 0 0) to (20 20 20)
  1 by 1 by 1 MPI processor grid
  reading atoms ...
  100 atoms
  read_data CPU = 0.027 seconds

pair_style	flare
pair_coeff	* * lmp.flare
Reading potential file lmp.flare with DATE: Fri

compute unc all flare/std/atom L_inv_lmp.flare sparse_desc_lmp.flare
Reading potential file L_inv_lmp.flare with DATE: Fri
Reading potential file sparse_desc_lmp.flare with DATE: Fri
compute MaxUnc all reduce max c_unc

mass            1 196.97
mass            2 32.06
mass            3 12.011
mass            4 1.00

min_style cg
minimize 1.0e-4 1.0e-6 100 1000
Neighbor list info ...
  update: every = 1 steps, delay = 0 steps, check = yes
  max neighbors/atom: 2000, page size: 100000
  master list distance cutoff = 7
  ghost atom cutoff = 7
  binsize = 3.5, bins = 6 6 6
  2 neighbor lists, perpetual/occasional/extra = 1 1 0
  (1) pair flare, perpetual
      attributes: full, newton on
      pair build: full/bin/atomonly
      stencil: full/bin/3d
      bin: standard
  (2) compute flare/std/atom, occasional, copy from (1)
      attributes: full, newton on
      pair build: copy
      stencil: none
      bin: none
Per MPI rank memory allocation (min/avg/max) = 17.41 | 17.41 | 17.41 Mbytes
   Step          Temp          E_pair         E_mol          TotEng         Press     
         0   0             -339.92446      0             -339.92446      505.06309    
         3   0             -340.05879      0             -340.05879      895.30658    
Loop_ time of 2.05771 on 16 procs for 3 steps with 100 atoms

100.0% CPU use with 1 MPI tasks x 16 OpenMP threads

Minimization stats:
  Stopping criterion = energy tolerance
  Energy initial, next-to-last, final = 
     -339.924463125765   -340.02983156779  -340.058791286377
  Force two-norm initial, final = 1.3983477 1.0459839
  Force max component initial, final = 0.42072168 0.18212607
  Final line search alpha, max atom move = 0.12497184 0.022760631
  Iterations, force evaluations = 3 6

MPI task timing breakdown:
Section |  min time  |  avg time  |  max time  |%varavg| %total
---------------------------------------------------------------
Pair    | 2.0576     | 2.0576     | 2.0576     |   0.0 | 99.99
Neigh   | 0          | 0          | 0          |   0.0 |  0.00
Comm    | 3.0378e-05 | 3.0378e-05 | 3.0378e-05 |   0.0 |  0.00
Output  | 0          | 0          | 0          |   0.0 |  0.00
Modify  | 0          | 0          | 0          |   0.0 |  0.00
Other   |            | 8.97e-05   |            |       |  0.00

Nlocal:            100 ave         100 max         100 min
Histogram: 1 0 0 0 0 0 0 0 0 0
Nghost:            164 ave         164 max         164 min
Histogram: 1 0 0 0 0 0 0 0 0 0
Neighs:              0 ave           0 max           0 min
Histogram: 1 0 0 0 0 0 0 0 0 0
FullNghs:         4198 ave        4198 max        4198 min
Histogram: 1 0 0 0 0 0 0 0 0 0

Total # of neighbors = 4198
Ave neighs/atom = 41.98
Neighbor list builds = 0
Dangerous builds = 0

velocity all create 400.0 4928459 rot yes dist gaussian
fix 1 all nvt temp 400 400 $(100.0*dt)
fix 1 all nvt temp 400 400 0.10000000000000000555
dump dump_all all custom 10 output.dump id type x y z fx fy fz c_unc
thermo 10
thermo_style custom step temp pe etotal press vol c_MaxUnc

run 100000
Per MPI rank memory allocation (min/avg/max) = 16.29 | 16.29 | 16.29 Mbytes
   Step          Temp          PotEng         TotEng         Press          Volume        c_MaxUnc   
         3   400           -340.05879     -334.94009      1578.7286      8000           0.0017450573 
        10   233.60849     -337.87428     -334.88485      164.89093      8000           0.0026034761 
        20   260.14898     -338.20729     -334.87823     -763.78586      8000           0.0026150946 
        30   213.65187     -337.56293     -334.82888     -634.53465      8000           0.0034287138 
        40   239.80737     -337.8251      -334.75634     -48.834021      8000           0.0042716334 
        50   193.08543     -337.12471     -334.65384      343.38692      8000           0.0049193471 
        60   226.9843      -337.43729     -334.53263      131.17295      8000           0.0049913095 
        70   215.62923     -337.2084      -334.44904      327.09096      8000           0.005429312  
        80   213.85927     -337.08042     -334.34371      846.33688      8000           0.0062174975 
        90   227.41585     -337.1639      -334.25372      1171.4231      8000           0.0061406251 
       100   192.45614     -336.62297     -334.16016      657.77824      8000           0.0067681168 
       110   293.01684     -337.82147     -334.07181     -1291.9114      8000           0.0063242876 
       120   233.07463     -336.94784     -333.96524     -2113.9617      8000           0.0066158726 
       130   259.2205      -337.17913     -333.86195     -1626.3894      8000           0.005995365  
       140   207.90677     -336.41722     -333.75668      281.48173      8000           0.0055182995 
       150   204.56977     -336.26934     -333.65151      1689.6897      8000           0.0056196226 
       160   292.04127     -337.29221     -333.55503      1513.7013      8000           0.0050100277 
       170   273.26064     -336.90953     -333.41268      1088.9455      8000           0.0049916511 
       180   312.47403     -337.2548      -333.25614      738.43995      8000           0.0042250131 
       190   258.13938     -336.40341     -333.10006      623.26358      8000           0.0050282041 
       200   317.38063     -337.04698     -332.98554      37.594707      8000           0.0053975066 
       210   310.10768     -336.82148     -332.85311     -1041.9693      8000           0.0062334235 
       220   323.86247     -336.84004     -332.69565     -2344.7271      8000           0.008516353  
       230   298.53516     -336.37069     -332.55041     -2184.5309      8000           0.0071335381 
       240   301.07009     -336.232       -332.37928     -971.74732      8000           0.0073855512 
       250   362.61761     -336.89228     -332.25195      672.46938      8000           0.0088842762 
       260   341.55074     -336.4948      -332.12406      1827.86        8000           0.0073211909 
       270   385.08782     -336.92425     -331.99637      1593.6813      8000           0.0068110852 
       280   297.34097     -335.63916     -331.83416      1413.2894      8000           0.0073848185 
       290   371.80155     -336.45152     -331.69366      653.29997      8000           0.0071811235 
       300   361.49393     -336.18102     -331.55507     -85.171756      8000           0.0061770808 
       310   379.46993     -336.26022     -331.40423     -1063.9175      8000           0.006057831  
       320   371.50146     -336.0123      -331.25829     -1937.3397      8000           0.0053665343 
       330   330.53839     -335.35425     -331.12443     -1902.7439      8000           0.0068577974 
       340   390.01804     -336.00837     -331.0174      -1242.8876      8000           0.0059447107 
       350   357.51143     -335.46619     -330.8912       324.44208      8000           0.006318306  
       360   378.34398     -335.59161     -330.75003      1405.3156      8000           0.0060583223 
       370   362.04733     -335.24959     -330.61656      1033.0292      8000           0.0063489511 
       380   387.97721     -335.47579     -330.51094     -178.64104      8000           0.0057928996 
       390   384.73922     -335.32466     -330.40125     -786.59673      8000           0.0060334464 
       400   363.70266     -334.90258     -330.24837     -828.83292      8000           0.0064376133 
       410   348.44299     -334.55819     -330.09925     -481.45497      8000           0.0071897296 
       420   357.34371     -334.5359      -329.96306     -658.03488      8000           0.009093029  
       430   440.96282     -335.50204     -329.85915     -851.74375      8000           0.0065290375 
       440   425.36459     -335.2198      -329.77651      191.72605      8000           0.0065873412 
       450   448.64352     -335.40911     -329.66793      1338.1862      8000           0.0065995346 
       460   381.4752      -334.42328     -329.54163      2457.3322      8000           0.0092055924 
       470   414.06465     -334.75106     -329.45238      1429.5337      8000           0.0078145405 
       480   410.17197     -334.61236     -329.36349     -847.901        8000           0.0089982145 
       490   388.43042     -334.25735     -329.2867      -2362.4438      8000           0.01480622   
       500   436.33222     -334.78713     -329.2035      -2703.4229      8000           0.0098776935 
       510   410.69846     -334.37669     -329.12108     -1567.0694      8000           0.0083098264 
       520   474.48078     -335.13367     -329.06185     -138.19333      8000           0.0062644852 
       530   426.01208     -334.44136     -328.98979      762.53073      8000           0.0070777466 
       540   459.03066     -334.81233     -328.93823      1234.4349      8000           0.0081003726 
       550   459.21059     -334.82038     -328.94397      1294.7741      8000           0.0081447901 
       560   479.39713     -335.0708      -328.93607      1144.4505      8000           0.0077604285 
       570   462.19063     -334.82723     -328.91269      272.84115      8000           0.0073737317 
       580   417.34687     -334.25151     -328.91082     -1487.3239      8000           0.0097966109 
       590   409.66782     -334.17171     -328.92929     -2911.1157      8000           0.007618013  
       600   379.98734     -333.82315     -328.96055     -3118.8897      8000           0.0089507262 
       610   453.14899     -334.8226      -329.02376     -2265.653       8000           0.0081185394 
       620   438.00004     -334.6956      -329.09063     -413.99843      8000           0.0077035822 
       630   443.2883      -334.78985     -329.11719      572.82594      8000           0.0077691071 
       640   404.59529     -334.3119      -329.13439      700.38573      8000           0.008059343  
       650   419.96807     -334.61277     -329.23854      263.65633      8000           0.0073013649 
       660   463.65369     -335.24853     -329.31527     -127.18761      8000           0.0077871215 
       670   399.1794      -334.48979     -329.38159      216.70988      8000           0.0074463633 
       680   394.59215     -334.50699     -329.45749     -121.67582      8000           0.010533308  
       690   357.79233     -334.11952     -329.54094     -655.08997      8000           0.011657536  
       700   397.46974     -334.71501     -329.62869     -670.96801      8000           0.011939507  
       710   392.98524     -334.71755     -329.68861     -147.04316      8000           0.011642066  
       720   382.90416     -334.63531     -329.73538      486.89006      8000           0.011270823  
       730   392.84846     -334.84554     -329.81835      396.18475      8000           0.0094833345 
       740   382.64719     -334.7857      -329.88906     -479.18074      8000           0.010148447  
       750   390.25173     -334.9176      -329.92364     -1263.6298      8000           0.0091511875 
       760   366.40494     -334.64657     -329.95778     -1617.4019      8000           0.0094280189 
       770   382.09865     -334.8789      -329.98928     -1530.0108      8000           0.0097259004 
       780   374.62917     -334.81713     -330.02309     -993.16454      8000           0.0096742727 
       790   372.84534     -334.83934     -330.06813     -569.69572      8000           0.0088280945 
       800   401.21099     -335.25863     -330.12443      7.6730429      8000           0.0080911308 
       810   363.91613     -334.81255     -330.1556       1018.3521      8000           0.007791825  
       820   376.08444     -334.97474     -330.16208      1695.8908      8000           0.0078244828 
       830   331.9106      -334.42442     -330.17704      2043.7752      8000           0.0087836459 
       840   356.41671     -334.74007     -330.17909      1161.3389      8000           0.0098581674 
       850   364.53887     -334.83156     -330.16665     -22.821087      8000           0.010314087  
       860   360.25065     -334.74832     -330.13828     -525.90256      8000           0.011654797  
       870   360.51121     -334.71827     -330.1049      -651.7512       8000           0.012364313  
       880   360.2199      -334.69613     -330.08648     -255.35501      8000           0.011320308  
       890   381.18462     -334.92616     -330.04824      283.73128      8000           0.0089785729 
       900   329.5131      -334.18733     -329.97063      409.11705      8000           0.011695538  
       910   374.58448     -334.71303     -329.91956      432.05925      8000           0.010320946  
       920   342.65148     -334.231       -329.84618      439.43923      8000           0.010630689  
       930   393.24407     -334.79443     -329.76219      307.11254      8000           0.012477465  
       940   374.86236     -334.4577      -329.66068      176.68952      8000           0.014199303  
       950   377.88154     -334.37745     -329.5418      -454.74472      8000           0.014808122  
       960   406.08991     -334.63731     -329.44068     -197.21968      8000           0.015049611  
       970   389.13553     -334.31512     -329.33545      702.40916      8000           0.0137452    
       980   459.14981     -335.12048     -329.24485      1077.565       8000           0.011598498  
       990   433.82523     -334.74085     -329.1893       1389.8013      8000           0.0096489805 
      1000   472.14247     -335.16745     -329.12556      724.2839       8000           0.009371644  
      1010   383.91892     -333.96975     -329.05683      382.92186      8000           0.0091296304 
      1020   391.61146     -334.02639     -329.01504     -170.24199      8000           0.010222372  
      1030   383.10167     -333.87322     -328.97076     -623.43651      8000           0.011610197  
      1040   419.66627     -334.3204      -328.95003     -856.65068      8000           0.010404698  
      1050   439.94935     -334.54777     -328.91785     -881.082        8000           0.010119856  
      1060   383.08148     -333.76174     -328.85954     -409.72565      8000           0.0097301819 
      1070   435.3214      -334.38016     -328.80946      340.68437      8000           0.006900735  
      1080   402.73946     -333.95695     -328.80319      1316.5888      8000           0.0066509849 
      1090   506.51659     -335.28484     -328.80307      1874.151       8000           0.0063904561 
      1100   402.83477     -333.92371     -328.76873      2343.3136      8000           0.0071586136 
      1110   435.05273     -334.33424     -328.76697      1521.1016      8000           0.0077573908 
      1120   466.43116     -334.78373     -328.81493      371.92462      8000           0.0086366715 
      1130   462.47827     -334.77781     -328.85959     -793.30836      8000           0.012445727  
      1140   483.1197      -335.06136     -328.879       -1365.5694      8000           0.011291181  
      1150   359.18096     -333.50164     -328.90529     -1468.2451      8000           0.010511987  
      1160   430.63442     -334.49662     -328.98589     -1988.4604      8000           0.0081728    
      1170   423.3947      -334.51212     -329.09404     -2010.8645      8000           0.0083878737 
      1180   471.69799     -335.24369     -329.20748     -1578.209       8000           0.0085974814 
      1190   414.58889     -334.5832      -329.27781     -373.23607      8000           0.0087919466 
      1200   418.33695     -334.7352      -329.38184      512.46299      8000           0.0096454408 
      1210   413.2048      -334.80927     -329.52159      816.1679       8000           0.010036334  
      1220   396.39452     -334.73827     -329.66571      658.23307      8000           0.0088484145 
      1230   417.9422      -335.11817     -329.76986     -108.11775      8000           0.010198849  
      1240   336.18165     -334.13068     -329.82865     -354.8734       8000           0.0085454021 
      1250   405.82306     -335.11357     -329.92035     -945.10523      8000           0.0088320083 
      1260   339.06425     -334.33393     -329.99501     -867.56132      8000           0.015327005  
      1270   394.39675     -335.09396     -330.04696     -955.27478      8000           0.008927649  
      1280   354.64174     -334.61325     -330.07498     -752.21415      8000           0.0090181629 
      1290   386.86041     -335.0487      -330.09814     -543.7927       8000           0.011621095  
      1300   401.13701     -335.25171     -330.11846     -450.46063      8000           0.0090222467 
      1310   393.28537     -335.17932     -330.14655     -553.36023      8000           0.0076283854 
      1320   404.64738     -335.32684     -330.14866     -753.72627      8000           0.0082057408 
      1330   360.85107     -334.74573     -330.12801     -1194.1409      8000           0.010253326  
      1340   416.64354     -335.47599     -330.1443      -1480.5289      8000           0.010890882  
      1350   392.53567     -335.18767     -330.16449     -760.60817      8000           0.013152542  
      1360   429.62193     -335.66967     -330.1719      -214.63371      8000           0.01070924   
      1370   342.52991     -334.53351     -330.15024      764.28697      8000           0.0097061286 
      1380   370.43373     -334.87508     -330.13474      1049.7676      8000           0.008499645  
      1390   388.48161     -335.10808     -330.13678      1053.5138      8000           0.0060347497 
      1400   437.4564      -335.7522      -330.15418      890.15119      8000           0.0059104728 
      1410   471.06121     -336.19251     -330.16445      251.10408      8000           0.0059665665 
      1420   391.18896     -335.15856     -330.15261      444.8879       8000           0.0063084572 
      1430   405.80578     -335.33431     -330.14132      86.242689      8000           0.0056594827 
      1440   339.3694      -334.48924     -330.14641     -235.91562      8000           0.0061606801 
      1450   388.48741     -335.1271      -330.15572      7.5037995      8000           0.0054657557 
      1460   409.86677     -335.40651     -330.16155      416.08993      8000           0.0050534288 
      1470   443.1996      -335.83952     -330.168        1185.3665      8000           0.005498761  
      1480   466.76073     -336.16138     -330.18836      1713.862       8000           0.0043753534 
      1490   430.12977     -335.71467     -330.21041      2119.7944      8000           0.0049395944 
      1500   445.48767     -335.93715     -330.23635      2137.7768      8000           0.0056671322 
      1510   398.67214     -335.38673     -330.28502      1178.5136      8000           0.0065058583 
      1520   424.31929     -335.77141     -330.3415      -292.7119       8000           0.0053589138 
      1530   383.45676     -335.30157     -330.39457     -1386.8989      8000           0.0059473667 
      1540   421.20973     -335.85156     -330.46144     -2457.3517      8000           0.0072904303 
      1550   395.93985     -335.60277     -330.53603     -2163.0622      8000           0.0071870937 
      1560   393.17203     -335.65147     -330.62014     -1194.6145      8000           0.0082201431 
      1570   386.14854     -335.6178      -330.67636     -96.333874      8000           0.0068037438 
      1580   357.47122     -335.32641     -330.75194      810.48468      8000           0.0083095897 
      1590   402.34375     -335.99781     -330.84912      559.30273      8000           0.0067982532 
      1600   374.07605     -335.71877     -330.93181      657.68551      8000           0.0074048347 
      1610   387.31644     -335.97079     -331.0144       429.82416      8000           0.0078877817 
      1620   351.88378     -335.5892      -331.08623      22.906771      8000           0.0087005164 
      1630   322.36314     -335.27992     -331.15472      172.15034      8000           0.0067600754 
      1640   336.19845     -335.53311     -331.23087     -291.26995      8000           0.007175239  
      1650   338.30471     -335.63557     -331.30637     -297.95213      8000           0.0067578181 
      1660   345.61364     -335.78685     -331.36411      135.723        8000           0.0073525505 
      1670   327.25891     -335.59587     -331.40801      542.90964      8000           0.0078454639 
      1680   319.35963     -335.53443     -331.44766      1021.1466      8000           0.0098909882 
      1690   323.52252     -335.61566     -331.47562      730.58079      8000           0.010803572  
      1700   331.53519     -335.7424      -331.49983      18.212089      8000           0.011338164  
      1710   345.29799     -335.93136     -331.51267     -557.68118      8000           0.011355305  
      1720   325.99248     -335.66215     -331.49051     -1175.3833      8000           0.01309837   
      1730   326.31505     -335.61057     -331.43479     -955.53481      8000           0.010534932  
      1740   286.53065     -335.02834     -331.36168     -598.57598      8000           0.01005325   
      1750   309.09959     -335.24001     -331.28454     -367.60951      8000           0.010661241  
      1760   319.67328     -335.2551      -331.16432      394.68723      8000           0.0094575129 
      1770   349.98993     -335.48904     -331.0103       840.74451      8000           0.0090112491 
      1780   385.98048     -335.77669     -330.83739      1506.0104      8000           0.0082827822 
      1790   358.73816     -335.23909     -330.6484       1713.9561      8000           0.0086882767 
      1800   372.92117     -335.26713     -330.49495      1003.4128      8000           0.0079295348 
      1810   332.49744     -334.60856     -330.35367      458.06755      8000           0.0084965038 
      1820   363.00869     -334.89403     -330.2487      -678.01889      8000           0.010059224  
      1830   399.95506     -335.28553     -330.16741     -996.0623       8000           0.010535919  
      1840   399.54341     -335.17899     -330.06613     -939.27098      8000           0.012263869  
      1850   409.43353     -335.22184     -329.98242     -955.16333      8000           0.010595086  
      1860   371.30418     -334.6584      -329.90691      76.801499      8000           0.01058412   
      1870   408.89828     -335.09185     -329.85928      524.64154      8000           0.0087128568 
      1880   405.96442     -334.99212     -329.79709      1111.1467      8000           0.0068379823 
      1890   423.37786     -335.15431     -329.73645      1413.7312      8000           0.0097350923 
      1900   416.26599     -335.01457     -329.68772      736.04609      8000           0.0093253365 
      1910   420.80251     -335.01988     -329.63497      277.7917       8000           0.0072526614 
      1920   405.45886     -334.76883     -329.58027     -237.03666      8000           0.0079526324 
      1930   413.2798      -334.84198     -329.55334     -341.80176      8000           0.0084201684 
      1940   413.23389     -334.81902     -329.53097      199.62855      8000           0.0079274952 
      1950   420.78747     -334.90321     -329.5185       206.66728      8000           0.00785126   
      1960   442.51256     -335.16238     -329.49965      402.8146       8000           0.0085644797 
      1970   380.46779     -334.33197     -329.46322      847.36414      8000           0.01317936   
      1980   394.15237     -334.47722     -329.43334      802.68682      8000           0.017393947  
      1990   396.92889     -334.51624     -329.43684      903.46242      8000           0.017109397  
      2000   414.77246     -334.72771     -329.41997      176.01318      8000           0.021733345  
      2010   409.07589     -334.61784     -329.383       -502.9116       8000           0.021313899  
      2020   352.50053     -333.86751     -329.35664     -286.56696      8000           0.017542015  
      2030   387.43496     -334.30792     -329.35001     -255.88354      8000           0.019075715  
      2040   391.42822     -334.33825     -329.32924      889.08864      8000           0.014094913  
      2050   437.25303     -334.89245     -329.29703      1355.1239      8000           0.012470746  
      2060   467.1265      -335.2682      -329.2905       1124.9911      8000           0.0074658379 
      2070   447.12731     -334.99637     -329.27459      709.78374      8000           0.0069654928 
      2080   469.32978     -335.30108     -329.29518     -376.72042      8000           0.0073135642 
      2090   452.9976      -335.12023     -329.32333     -902.82432      8000           0.0068588165 
      2100   444.36171     -335.02049     -329.33411     -2001.1685      8000           0.0080583889 
      2110   398.68581     -334.46908     -329.36719     -3020.6984      8000           0.0074454349 
      2120   388.27651     -334.38344     -329.41476     -2872.7306      8000           0.0072154801 
      2130   409.79523     -334.73816     -329.49411     -2472.3385      8000           0.0067736512 
      2140   444.63317     -335.2662      -329.57634     -909.74228      8000           0.0064345163 
      2150   455.53928     -335.48499     -329.65557      947.8866       8000           0.0078454967 
      2160   402.08379     -334.85236     -329.70699      2119.1271      8000           0.0081154827 
      2170   376.43206     -334.57582     -329.75871      2318.8704      8000           0.008172621  
      2180   366.79967     -334.55581     -329.86196      1432.274       8000           0.0077577029 
      2190   414.85981     -335.27424     -329.96538      239.47674      8000           0.0073141837 
      2200   389.65861     -335.00566     -330.0193      -716.7198       8000           0.006924838  
      2210   355.16872     -334.59664     -330.05163     -1731.8589      8000           0.007738093  
      2220   329.33139     -334.29399     -330.07962     -1984.5761      8000           0.0091235201 
      2230   323.46169     -334.25721     -330.11795     -1862.7513      8000           0.0091758628 
      2240   388.50077     -335.13476     -330.16321     -1286.3851      8000           0.0074891557 
      2250   393.86021     -335.22654     -330.18641      35.380445      8000           0.0069197745 
      2260   427.41516     -335.68263     -330.2131       667.55366      8000           0.0068642823 
      2270   410.04363     -335.49437     -330.24714      901.51517      8000           0.0079374322 
      2280   380.92707     -335.11498     -330.24035      799.27364      8000           0.0073738876 
      2290   362.00795     -334.86561     -330.23309      443.13132      8000           0.0076241418 
      2300   358.94176     -334.82715     -330.23386      116.06145      8000           0.0079775374 
      2310   393.13463     -335.28611     -330.25526     -720.83361      8000           0.0082783257 
      2320   404.87851     -335.4571      -330.27597     -1358.9393      8000           0.0089495423 
      2330   407.11966     -335.48688     -330.27707     -1159.5752      8000           0.0098242647 
      2340   370.0693      -335.00111     -330.26543     -731.68072      8000           0.0094383173 
      2350   371.92771     -335.02099     -330.26153     -120.90121      8000           0.0085470767 
      2360   361.76813     -334.87877     -330.24931      39.700383      8000           0.0081614042 
      2370   382.96879     -335.13393     -330.23318     -193.51392      8000           0.0077565385 
      2380   376.66695     -335.02262     -330.20251     -468.73184      8000           0.0078937801 
      2390   377.98362     -334.99911     -330.16215     -543.36545      8000           0.0083001736 
      2400   393.49217     -335.13412     -330.0987      -269.01957      8000           0.010274714  
      2410   366.34052     -334.69355     -330.00559      134.01345      8000           0.010160317  
      2420   367.10334     -334.59769     -329.89995      529.07591      8000           0.0087657348 
      2430   397.71762     -334.91138     -329.82189      891.17113      8000           0.008458027  
      2440   425.6256      -335.18509     -329.73846      1228.7357      8000           0.0075048067 
      2450   422.01593     -334.98999     -329.58956      1594.0933      8000           0.005944979  
      2460   382.22463     -334.33169     -329.44045      2018.709       8000           0.0063690071 
      2470   409.90497     -334.57572     -329.33026      1817.2785      8000           0.007066885  
      2480   454.29676     -335.05597     -329.24244      1439.2549      8000           0.0060625342 
      2490   440.22293     -334.78127     -329.14784      832.37197      8000           0.0059871375 
      2500   453.48076     -334.87572     -329.07264      307.32147      8000           0.0060966465 
      2510   430.52358     -334.51068     -329.00137      156.8784       8000           0.0069112378 
      2520   453.58389     -334.74113     -328.93673     -258.25363      8000           0.0080366221 
      2530   435.46522     -334.48986     -328.91732     -109.47959      8000           0.0075054015 
      2540   417.7811      -334.2551      -328.90886      68.42314       8000           0.007721447  
      2550   416.1116      -334.21964     -328.89476      193.54718      8000           0.00796317   
      2560   429.60679     -334.393       -328.89543      60.424224      8000           0.008858565  
      2570   455.18439     -334.7159      -328.89102     -71.532985      8000           0.006613637  
      2580   442.2455      -334.56349     -328.90418     -133.44647      8000           0.0087251876 
      2590   429.52686     -334.43452     -328.93797     -410.2829       8000           0.00963572   
      2600   410.83877     -334.25467     -328.99726     -748.30303      8000           0.010260696  
      2610   434.74562     -334.60737     -329.04404     -1040.8111      8000           0.0096513893 
      2620   423.84546     -334.5026      -329.07875     -1111.4815      8000           0.0081558422 
      2630   417.3169      -334.48379     -329.14349     -1187.3377      8000           0.01031686   
      2640   409.71258     -334.46264     -329.21965     -1278.6781      8000           0.0057417961 
      2650   402.18913     -334.43953     -329.29282     -1129.0763      8000           0.0060699339 
      2660   428.3701      -334.85895     -329.37721     -1002.3754      8000           0.006134385  
      2670   424.27784     -334.9102      -329.48082     -615.04094      8000           0.0057125696 
      2680   427.78476     -335.04182     -329.56756      0.71898205     8000           0.0056949367 
      2690   391.51837     -334.64957     -329.63941      548.25204      8000           0.006132477  
      2700   409.99543     -335.00328     -329.75667      698.17008      8000           0.0056256418 
      2710   411.70927     -335.15384     -329.8853       798.84064      8000           0.0056170496 
      2720   425.99703     -335.44617     -329.99479      897.39476      8000           0.0056803738 
      2730   412.1733      -335.35378     -330.0793       946.34208      8000           0.006691135  
      2740   398.91573     -335.26176     -330.15694      185.74072      8000           0.0057911712 
      2750   424.10746     -335.65329     -330.22609     -720.7215       8000           0.0066726719 
      2760   384.94264     -335.22258     -330.29656     -855.46135      8000           0.0086000568 
      2770   396.4474      -335.44397     -330.37073     -1192.9115      8000           0.0076481749 
      2780   363.36089     -335.04628     -330.39644     -1003.6679      8000           0.0085260178 
      2790   365.41229     -335.09008     -330.41399     -539.77902      8000           0.0086844567 
      2800   378.29052     -335.27052     -330.42963     -240.71014      8000           0.010016553  
      2810   374.80838     -335.24239     -330.44606      92.51423       8000           0.010220706  
      2820   374.27126     -335.24513     -330.45568      436.75124      8000           0.0083560276 
      2830   392.55829     -335.46911     -330.44564      675.47285      8000           0.014168568  
      2840   364.98725     -335.09407     -330.42341      590.05565      8000           0.010347     
      2850   344.39192     -334.80565     -330.39855     -224.02128      8000           0.0085821847 
      2860   375.15966     -335.17747     -330.37665     -1061.9086      8000           0.010215455  
      2870   361.6144      -334.98294     -330.35545     -1551.1183      8000           0.009512648  
      2880   400.02634     -335.44926     -330.33023     -1683.1419      8000           0.0089853051 
      2890   381.70483     -335.17939     -330.29481     -672.97539      8000           0.0081768047 
      2900   380.95323     -335.12844     -330.25347      180.38425      8000           0.00917141   
      2910   381.13216     -335.07693     -330.19968      565.92373      8000           0.0082169435 
      2920   367.56109     -334.84351     -330.13992      756.43748      8000           0.0086051001 
      2930   371.55945     -334.85187     -330.09711      659.22261      8000           0.010808992  
      2940   414.54254     -335.36224     -330.05744      512.94244      8000           0.0084289491 
      2950   429.04065     -335.49614     -330.00581      417.23881      8000           0.008248999  
      2960   398.65363     -335.03221     -329.93074      455.86036      8000           0.010030839  
      2970   416.25873     -335.21182     -329.88506      734.29196      8000           0.010762874  
      2980   367.59685     -334.54907     -329.84502      1486.4772      8000           0.0098359    
      2990   435.8357      -335.38326     -329.80597      1947.2311      8000           0.01025316   
      3000   424.65262     -335.23727     -329.8031       2028.9436      8000           0.009304869  
      3010   455.07806     -335.60177     -329.77825      1479.5661      8000           0.011264034  
      3020   430.56398     -335.23821     -329.72839      471.2996       8000           0.0091239815 
      3030   379.60071     -334.556       -329.69835     -473.89217      8000           0.0087603866 
      3040   401.34364     -334.82348     -329.68758     -799.25203      8000           0.008557061  
      3050   359.4656      -334.26502     -329.66503     -1239.1639      8000           0.0071223915 
      3060   422.02371     -335.05768     -329.65715     -1399.7947      8000           0.0069994039 
      3070   414.59911     -334.95184     -329.64632     -864.87847      8000           0.0075355564 
      3080   442.73378     -335.29739     -329.63184     -353.32458      8000           0.0089082245 
      3090   383.48243     -334.51385     -329.60652      931.15817      8000           0.0086228128 
      3100   387.35154     -334.5553      -329.59845      1453.4453      8000           0.0096674373 
      3110   424.00302     -335.02632     -329.60046      1321.5079      8000           0.0089866361 
      3120   403.20343     -334.73735     -329.57765      1318.1196      8000           0.010472844  
      3130   435.03068     -335.11143     -329.54445      166.6905       8000           0.011670134  
      3140   368.7831      -334.22323     -329.50401     -472.21573      8000           0.012056922  
      3150   407.06755     -334.70902     -329.49988     -1155.9569      8000           0.014540604  
      3160   391.30407     -334.48417     -329.47675     -1085.7592      8000           0.013712289  
      3170   392.77497     -334.45744     -329.4312      -24.721357      8000           0.01455897   
      3180   382.93582     -334.28762     -329.38728      709.14219      8000           0.017452918  
      3190   410.96604     -334.59344     -329.33441      883.40936      8000           0.012500249  
      3200   435.06648     -334.81779     -329.25035      488.13683      8000           0.010692611  
      3210   399.2578      -334.29324     -329.18403     -203.54049      8000           0.0099743039 
      3220   429.97581     -334.61365     -329.11136     -821.95694      8000           0.0094091449 
      3230   383.37505     -333.92754     -329.02159     -1112.3537      8000           0.0097377174 
      3240   422.06514     -334.33086     -328.9298      -1794.6871      8000           0.010155316  
      3250   410.3389      -334.09015     -328.83914     -1883.0672      8000           0.0097314004 
      3260   416.92923     -334.10008     -328.76473     -1829.0648      8000           0.0090826347 
      3270   451.26682     -334.47489     -328.70014     -1005.2244      8000           0.012201689  
      3280   440.94223     -334.24762     -328.60499     -28.062635      8000           0.0098604103 
      3290   433.37933     -334.061       -328.51515      1147.7071      8000           0.010244697  
      3300   434.87562     -334.05557     -328.49058      1160.3943      8000           0.010052086  
      3310   459.14095     -334.33063     -328.45512     -71.683242      8000           0.017269812  
      3320   414.40078     -333.69122     -328.38824     -691.31273      8000           0.011448303  
      3330   433.46782     -333.89363     -328.34665     -796.67308      8000           0.01096961   
      3340   437.76693     -333.95745     -328.35545     -79.104213      8000           0.014717613  
      3350   419.37152     -333.73414     -328.36755      652.7329       8000           0.014104396  
      3360   428.7532      -333.84425     -328.3576       255.9621       8000           0.01979877   
      3370   379.71972     -333.21654     -328.35736      13.228212      8000           0.015909769  
      3380   426.41491     -333.83055     -328.37382     -405.51589      8000           0.012715896  
      3390   430.09653     -333.89702     -328.39318     -778.14728      8000           0.01164767   
      3400   438.8092      -334.03716     -328.42183     -965.11784      8000           0.0079108568 
      3410   445.99179     -334.14443     -328.43718     -1831.6461      8000           0.0076731358 
      3420   419.90736     -333.84825     -328.4748      -1975.0872      8000           0.0076182283 
      3430   396.39564     -333.60416     -328.53159     -1121.9851      8000           0.0083647756 
      3440   403.41861     -333.77909     -328.61664     -29.873393      8000           0.0082336962 
      3450   452.33011     -334.51278     -328.72443      1230.2438      8000           0.0093572137 
      3460   426.66975     -334.28003     -328.82004      1807.4647      8000           0.0086726116 
      3470   437.61712     -334.5059      -328.90582      853.92837      8000           0.0089735767 
      3480   355.36816     -333.53327     -328.98571      629.56836      8000           0.008694864  
      3490   409.64705     -334.35853     -329.11638     -2.8252477      8000           0.0090484835 
      3500   418.5432      -334.59508     -329.23909     -358.93955      8000           0.010064216  
      3510   385.91559     -334.27089     -329.33242     -378.60551      8000           0.0075016631 
      3520   411.07379     -334.67471     -329.4143      -852.78512      8000           0.0075136887 
      3530   393.19344     -334.56467     -329.53307     -588.17598      8000           0.0083154911 
      3540   425.38448     -335.07374     -329.6302       178.56639      8000           0.007551567  
      3550   368.50944     -334.39703     -329.68131      1221.7929      8000           0.0090516398 
      3560   413.33761     -335.05598     -329.7666       2062.4593      8000           0.0085882471 
      3570   384.70678     -334.76412     -329.84112      1767.8736      8000           0.0078714218 
      3580   420.22377     -335.26467     -329.88716      587.41185      8000           0.0074666552 
      3590   391.53496     -334.93719     -329.92681      213.11828      8000           0.0074995775 
      3600   389.55281     -334.94822     -329.96321     -167.19241      8000           0.0077822985 
      3610   428.38038     -335.48351     -330.00163     -320.09827      8000           0.0070115289 
      3620   385.26081     -334.95951     -330.02942     -664.31317      8000           0.0067710097 
      3630   445.64148     -335.77872     -330.07595     -1312.1262      8000           0.0062270216 
      3640   390.71522     -335.12497     -330.12508     -987.82866      8000           0.0064300969 
      3650   427.37575     -335.631       -330.16198     -825.00208      8000           0.0068501791 
      3660   402.03416     -335.34069     -330.19596     -143.17831      8000           0.0071960223 
      3670   411.71809     -335.49374     -330.22508     -98.32009       8000           0.0069844274 
      3680   388.49132     -335.20541     -330.23398     -634.54859      8000           0.0075511135 
      3690   364.94794     -334.91931     -330.24916     -636.5023       8000           0.0072817864 
      3700   394.65479     -335.33659     -330.28629     -477.74847      8000           0.0079625958 
      3710   399.34083     -335.43055     -330.32029     -284.84315      8000           0.0063513993 
      3720   453.47783     -336.14983     -330.34678     -339.85263      8000           0.0061645224 
      3730   379.44897     -335.21328     -330.35757     -101.39407      8000           0.0090688441 
      3740   397.62514     -335.45262     -330.36431     -50.837388      8000           0.0067173505 
      3750   347.62551     -334.82807     -330.37959      311.38366      8000           0.010173113  
      3760   377.39227     -335.23893     -330.40954      310.91387      8000           0.01177151   
      3770   380.00555     -335.2801      -330.41727      140.06071      8000           0.010235971  
      3780   360.59035     -335.0325      -330.41811     -26.884393      8000           0.013161932  
      3790   407.27371     -335.61793     -330.40615     -218.07431      8000           0.0091173979 
      3800   370.00684     -335.11422     -330.37933      76.808323      8000           0.00858869   
      3810   383.27338     -335.25679     -330.35214      567.70113      8000           0.007425657  
      3820   329.58669     -334.53986     -330.32222      1479.4481      8000           0.0087562806 
      3830   389.22414     -335.29392     -330.31312      1622.359       8000           0.0073278564 
      3840   395.63247     -335.35266     -330.28985      1881.0271      8000           0.0074458205 
      3850   441.63611     -335.90013     -330.24862      1550.2986      8000           0.0076842384 
      3860   426.60329     -335.64453     -330.18539      882.10661      8000           0.006869921  
      3870   368.75774     -334.82623     -330.10733      352.86734      8000           0.0063622902 
      3880   429.9856      -335.56146     -330.05904     -1157.9495      8000           0.0065684062 
      3890   390.79719     -335.00504     -330.0041      -1866.1946      8000           0.0069957911 
      3900   438.76307     -335.56448     -329.94974     -1969.6399      8000           0.0089180354 
      3910   378.05017     -334.71163     -329.87381     -1305.5953      8000           0.011199768  
      3920   393.31678     -334.80941     -329.77623     -89.360721      8000           0.010375583  
      3930   397.16499     -334.74066     -329.65823      867.48262      8000           0.013843957  
      3940   420.00945     -334.94235     -329.56759      1388.357       8000           0.012200691  
      3950   422.43721     -334.82847     -329.42264      2179.6307      8000           0.011686799  
      3960   393.90199     -334.26565     -329.22498      1895.5824      8000           0.010319625  
      3970   445.24912     -334.76314     -329.0654       1148.1434      8000           0.0089510045 
      3980   446.34109     -334.65113     -328.93941      292.88868      8000           0.0081624546 
      3990   477.48253     -334.91475     -328.80452     -759.56378      8000           0.007297342  
      4000   409.8055      -333.90789     -328.66371     -271.70961      8000           0.0083180613 
      4010   406.18122     -333.7735      -328.5757      -22.36847       8000           0.0095296805 
      4020   419.39529     -333.90394     -328.53704      176.63038      8000           0.010745496  
      4030   419.56636     -333.85335     -328.48426      326.42263      8000           0.008257319  
      4040   486.71092     -334.70382     -328.4755      -379.80757      8000           0.0072295983 
      4050   460.47463     -334.32644     -328.43386     -251.61511      8000           0.0073538587 
      4060   448.82269     -334.12979     -328.38632     -281.55771      8000           0.0064354044 
      4070   423.55039     -333.82869     -328.40862     -372.3422       8000           0.0069636834 
      4080   461.0104      -334.36096     -328.46152     -764.37693      8000           0.0078843848 
      4090   469.78881     -334.51622     -328.50445     -1376.3075      8000           0.0079768859 
      4100   503.35655     -334.99244     -328.55111     -1160.0053      8000           0.010648862  
      4110   459.63645     -334.4924      -328.61054     -41.05559       8000           0.015762345  
      4120   451.03928     -334.48407     -328.71223      566.97014      8000           0.016031752  
      4130   468.96583     -334.80662     -328.80538      696.76404      8000           0.01479992   
      4140   416.47777     -334.21058     -328.88102      100.26908      8000           0.012809071  
      4150   455.79325     -334.81089     -328.97822     -613.47119      8000           0.0088899333 
      4160   425.78167     -334.51313     -329.06451     -347.03596      8000           0.0080970066 
      4170   430.11927     -334.65659     -329.15246     -185.91645      8000           0.0059592738 
      4180   431.01436     -334.75187     -329.23629     -140.09166      8000           0.0063284729 
      4190   409.14716     -334.55721     -329.32146     -272.59786      8000           0.0051245049 
      4200   404.00721     -334.56949     -329.39951     -253.37037      8000           0.0045369743 
      4210   440.04908     -335.11507     -329.48387     -64.66522       8000           0.004793715  
      4220   447.59224     -335.28265     -329.55492     -7.9365967      8000           0.0052828077 
      4230   422.10289     -335.00085     -329.5993      -37.922259      8000           0.0060712623 
      4240   412.44867     -334.91213     -329.63412     -552.61606      8000           0.00529547   
      4250   374.32534     -334.46813     -329.67798     -991.24394      8000           0.0054907121 
      4260   415.38799     -335.05956     -329.74394     -950.2212       8000           0.0062405969 
      4270   436.6186      -335.38789     -329.80058     -511.09399      8000           0.0071378054 
      4280   403.54381     -334.99977     -329.83572      741.63543      8000           0.0075981195 
      4290   401.10633     -334.99487     -329.86201      1013.7998      8000           0.0083707088 
      4300   362.5937      -334.54658     -329.90656      791.30674      8000           0.0087650577 
      4310   379.77531     -334.8119      -329.95201      574.05236      8000           0.0089254771 
      4320   399.04441     -335.08815     -329.98167      102.68762      8000           0.0079260337 
      4330   378.3427      -334.83116     -329.9896       289.09435      8000           0.011845024  
      4340   377.8182      -334.81845     -329.9836      -11.117844      8000           0.0090271952 
      4350   383.73338     -334.89447     -329.98393     -1108.0562      8000           0.010000324  
      4360   357.31928     -334.54946     -329.97693     -1183.5252      8000           0.011727767  
      4370   358.85229     -334.57074     -329.97859     -530.87509      8000           0.010269478  
      4380   387.37707     -334.94627     -329.9891       597.75899      8000           0.010833429  
      4390   401.4186      -335.12902     -329.99217      1666.235       8000           0.0095328992 
      4400   444.2681      -335.63834     -329.95315      1280.3454      8000           0.0078105623 
      4410   388.68583     -334.87998     -329.90607      968.45163      8000           0.0070274625 
      4420   395.05408     -334.97275     -329.91734      301.85008      8000           0.0061689828 
      4430   393.81742     -334.95491     -329.91533     -515.24297      8000           0.0070327647 
      4440   386.04523     -334.8101      -329.86997     -572.99692      8000           0.006178331  
      4450   395.54656     -334.88899     -329.82728     -1116.6011      8000           0.0061637349 
      4460   376.47062     -334.60945     -329.79185     -1671.5122      8000           0.0069202453 
      4470   396.8705      -334.84078     -329.76213     -1250.7819      8000           0.0071216646 
      4480   409.12026     -334.94054     -329.70512     -151.11983      8000           0.0056885416 
      4490   420.78937     -335.03058     -329.64584      1523.3774      8000           0.0072608074 
      4500   388.30729     -334.54754     -329.57847      2623.2949      8000           0.0065452767 
      4510   413.26458     -334.79187     -329.50342      1950.7669      8000           0.0059467841 
      4520   442.17657     -335.09515     -329.43673      763.9743       8000           0.0090194233 
      4530   442.31913     -335.00084     -329.34059     -529.11705      8000           0.00745358   
      4540   422.80777     -334.64112     -329.23055     -857.11012      8000           0.0081152917 
      4550   400.44232     -334.259       -329.13464     -545.55434      8000           0.0093403287 
      4560   407.05873     -334.27802     -329.06899     -737.73875      8000           0.0093512854 
      4570   435.84824     -334.55113     -328.97369     -628.00077      8000           0.009401526  
      4580   437.63219     -334.4647      -328.86443     -266.02071      8000           0.0089265436 
      4590   440.98526     -334.41078     -328.7676       740.22544      8000           0.0084109625 
      4600   481.71351     -334.85772     -328.69335      1678.8708      8000           0.0084243708 
      4610   481.64485     -334.77794     -328.61445      1671.6514      8000           0.0073269263 
      4620   453.53758     -334.34273     -328.53892      1241.5428      8000           0.0059700169 
      4630   427.12278     -333.93846     -328.47267      380.76513      8000           0.0061942616 
      4640   402.22116     -333.57021     -328.42308     -75.929583      8000           0.0070399092 
      4650   490.0458      -334.70029     -328.42929     -159.49645      8000           0.0092884589 
      4660   542.60241     -335.39053     -328.44698     -147.64536      8000           0.0068358793 
      4670   486.07537     -334.67913     -328.45894     -16.267518      8000           0.0065465953 
      4680   452.02528     -334.27091     -328.48645     -468.43482      8000           0.0068266443 
      4690   392.56331     -333.56712     -328.54359     -756.56198      8000           0.0064474757 
      4700   415.45094     -333.95647     -328.64004     -749.71269      8000           0.0067654556 
      4710   453.71075     -334.57188     -328.76586     -1015.1637      8000           0.0066509225 
      4720   419.16817     -334.25434     -328.89035     -995.46306      8000           0.0072974479 
      4730   416.43545     -334.34873     -329.01971     -1462.7865      8000           0.0062522606 
      4740   422.17964     -334.5588      -329.15627     -1838.4671      8000           0.0065533256 
      4750   410.77006     -334.55364     -329.29712     -1059.0867      8000           0.0071527561 
      4760   410.16189     -334.68542     -329.43668      57.43213       8000           0.0060025481 
      4770   405.4679      -334.75549     -329.56682      243.33206      8000           0.0058220955 
      4780   381.88575     -334.56679     -329.6799       111.20418      8000           0.0077672508 
      4790   433.51579     -335.34431     -329.79672     -965.11776      8000           0.0059293802 
      4800   387.35662     -334.82923     -329.87232     -1192.4752      8000           0.0066483143 
      4810   381.23534     -334.79393     -329.91535     -710.88112      8000           0.0066959513 
      4820   363.98279     -334.60036     -329.94256     -367.95777      8000           0.0057994322 
      4830   368.79877     -334.69762     -329.97819      84.044639      8000           0.0059903505 
      4840   395.87742     -335.0811      -330.01516     -223.52068      8000           0.0062377404 
      4850   407.07946     -335.24499     -330.0357      -547.70315      8000           0.0069820846 
      4860   423.51139     -335.47344     -330.05387     -111.11917      8000           0.0070934545 
      4870   401.05423     -335.18634     -330.05415      182.14609      8000           0.0077565781 
      4880   393.76569     -335.09427     -330.05535      445.65258      8000           0.0095743112 
      4890   350.0915      -334.54629     -330.06625      456.6691       8000           0.0081303668 
      4900   369.6447      -334.79725     -330.067       -19.353181      8000           0.0089170919 
      4910   375.02749     -334.85672     -330.05759      183.05183      8000           0.0064970506 
      4920   375.35966     -334.83318     -330.02979      558.0972       8000           0.0067367958 
      4930   408.9437      -335.25189     -330.01874      503.38418      8000           0.0072567727 
      4940   398.68133     -335.12181     -330.01999      712.25214      8000           0.0081034207 
      4950   408.61871     -335.22626     -329.99727      512.61115      8000           0.0083686492 
      4960   391.57842     -334.94712     -329.93619      183.95663      8000           0.0076296107 
      4970   387.68698     -334.88745     -329.92632     -323.48755      8000           0.00725881   
      4980   413.95333     -335.21236     -329.9151      -1452.6732      8000           0.0068006467 
      4990   418.72607     -335.24092     -329.88259     -1847.3353      8000           0.0086653165 
      5000   406.3138      -335.0479      -329.84841     -1634.7086      8000           0.0090732148 
      5010   398.88127     -334.92706     -329.82267     -942.12835      8000           0.0068675276 
      5020   401.65519     -334.93986     -329.79998      120.1655       8000           0.0057888703 
      5030   383.31984     -334.68951     -329.78426      828.524        8000           0.005740167  
      5040   410.9077      -335.03985     -329.78157      1322.5882      8000           0.006651331  
      5050   397.57407     -334.84975     -329.76209      1493.4689      8000           0.0071935966 
      5060   399.27564     -334.81764     -329.70821      1229.8504      8000           0.0076011594 
      5070   417.51204     -334.98698     -329.64419      635.62348      8000           0.0060609915 
      5080   407.41079     -334.81386     -329.60032     -488.46648      8000           0.0064814171 
      5090   435.27208     -335.14827     -329.5782      -1114.4237      8000           0.0053421006 
      5100   424.67157     -334.98796     -329.55355     -938.68682      8000           0.0056295822 
      5110   417.40605     -334.86137     -329.51993     -117.12488      8000           0.0059662917 
      5120   447.96265     -335.21736     -329.4849       712.35345      8000           0.0054279736 
      5130   431.73205     -334.97451     -329.44974      1085.3495      8000           0.0057157705 
      5140   434.99713     -335.00228     -329.43573      1419.4029      8000           0.0061800394 
      5150   422.67502     -334.84238     -329.43351      1294.7481      8000           0.0061160619 
      5160   419.7604      -334.78167     -329.4101       1238.2442      8000           0.0058590193 
      5170   421.80088     -334.78992     -329.39224      983.32074      8000           0.0066254394 
      5180   429.29573     -334.8902      -329.3966      -240.7027       8000           0.0056504111 
      5190   426.57282     -334.86904     -329.41029     -1361.4593      8000           0.0060564175 
      5200   416.99371     -334.75639     -329.42023     -1731.0931      8000           0.008436901  
      5210   406.50555     -334.64419     -329.44224     -1248.5547      8000           0.0085507129 
      5220   408.85307     -334.70558     -329.47359     -171.45604      8000           0.0073720635 
      5230   421.52709     -334.91607     -329.52189      22.414097      8000           0.0074307548 
      5240   404.82861     -334.74671     -329.56622     -275.7799       8000           0.0093730845 
      5250   409.27589     -334.84058     -329.60318     -1017.055       8000           0.0099011553 
      5260   402.66743     -334.80587     -329.65303     -1523.0486      8000           0.0095611685 
      5270   396.0221      -334.77696     -329.70916     -923.90541      8000           0.0071209853 
      5280   381.80479     -334.65416     -329.7683      -200.76335      8000           0.0064089803 
      5290   385.08734     -334.75528     -329.82741      49.534549      8000           0.0088982089 
      5300   395.16958     -334.96024     -329.90335      450.32298      8000           0.0082816679 
      5310   407.19916     -335.18708     -329.97625      942.5492       8000           0.0066611595 
      5320   414.08077     -335.33887     -330.03998      2047.2788      8000           0.00701573   
      5330   397.04985     -335.19135     -330.1104       2711.6594      8000           0.0062990856 
      5340   414.48425     -335.4993      -330.19525      1567.5517      8000           0.0070023806 
      5350   388.31368     -335.2408      -330.27165      111.76019      8000           0.0061982933 
      5360   369.49759     -335.06057     -330.3322      -1210.2426      8000           0.0078412179 
      5370   347.63852     -334.8437      -330.39506     -1366.3679      8000           0.0092196384 
      5380   354.88128     -334.99906     -330.45773     -565.0976       8000           0.01266989   
      5390   350.67795     -334.97999     -330.49245     -422.86486      8000           0.012090982  
      5400   349.25335     -334.99245     -330.52314     -397.80026      8000           0.010021199  
      5410   352.08629     -335.06094     -330.55538     -166.35818      8000           0.010636842  
      5420   357.3641      -335.14541     -330.57231      307.40374      8000           0.0072963557 
      5430   390.29029     -335.56581     -330.57136      1129.3447      8000           0.0063827907 
      5440   365.31828     -335.23071     -330.55582      840.54058      8000           0.0056807302 
      5450   359.46849     -335.14577     -330.54574     -126.33729      8000           0.0064485781 
      5460   336.17054     -334.82336     -330.52146     -1390.8438      8000           0.005229172  
      5470   362.17583     -335.11636     -330.48168     -2220.1216      8000           0.0050778732 
      5480   395.6713      -335.49818     -330.43487     -1868.8788      8000           0.0064520951 
      5490   402.38022     -335.53235     -330.38319     -1106.9738      8000           0.012751139  
      5500   393.3587      -335.3515      -330.31779     -468.94436      8000           0.011670617  
      5510   364.45418     -334.89671     -330.23288      21.437106      8000           0.010872933  
      5520   380.46565     -335.0171      -330.14837      685.77077      8000           0.0087306156 
      5530   405.20467     -335.24276     -330.05745      1658.6741      8000           0.0070171032 
      5540   430.12146     -335.45649     -329.95233      2212.0604      8000           0.0075968569 
      5550   406.76562     -335.04654     -329.84126      1986.451       8000           0.010262723  
      5560   414.06886     -335.02965     -329.73091      756.00234      8000           0.012236207  
      5570   429.76152     -335.12512     -329.62557     -541.1242       8000           0.009821455  
      5580   438.69975     -335.14064     -329.52671     -484.67749      8000           0.011292663  
      5590   440.34036     -335.07538     -329.44045      422.67752      8000           0.010644974  
      5600   383.17074     -334.24937     -329.34603      1333.4204      8000           0.010867387  
      5610   413.92375     -334.58015     -329.28327      1147.7322      8000           0.017231508  
      5620   420.45486     -334.6071      -329.22664      678.02654      8000           0.0093162801 
      5630   445.46914     -334.88021     -329.17965      749.76101      8000           0.011308705  
      5640   432.40301     -334.66371     -329.13036      1007.0109      8000           0.007610362  
      5650   425.91715     -334.54451     -329.09415      1069.3222      8000           0.0094020054 
      5660   416.80268     -334.3872      -329.05348      583.51874      8000           0.0086664366 
      5670   415.73985     -334.35303     -329.03291     -86.139398      8000           0.010366049  
      5680   445.0622      -334.72727     -329.03192     -437.78666      8000           0.0092427288 
      5690   457.37345     -334.8989      -329.046       -331.0028       8000           0.0088350046 
      5700   506.52688     -335.57757     -329.09567     -88.558047      8000           0.0079126546 
      5710   465.84284     -335.09631     -329.13503      114.72974      8000           0.0086639679 
      5720   431.85152     -334.67281     -329.14651     -700.92876      8000           0.0092809335 
      5730   379.49461     -334.03503     -329.17873     -1138.9994      8000           0.010088209  
      5740   402.66687     -334.39634     -329.24351     -1034.8162      8000           0.014784586  
      5750   455.68367     -335.14717     -329.3159      -829.53053      8000           0.017571897  
      5760   438.8976      -334.99528     -329.37882     -303.71023      8000           0.013428796  
      5770   454.36554     -335.23974     -329.42533     -113.58463      8000           0.010436112  
      5780   383.52885     -334.34427     -329.43635      77.272249      8000           0.0082073818 
      5790   397.94966     -334.54425     -329.45179      83.003728      8000           0.0079050975 
      5800   387.33583     -334.45236     -329.49572      425.97273      8000           0.007523769  
      5810   400.21099     -334.66267     -329.54127      805.75166      8000           0.0066715012 
      5820   411.10396     -334.82983     -329.56904      23.28174       8000           0.0061952093 
      5830   432.52428     -335.13748     -329.60257     -985.79595      8000           0.0069316057 
      5840   446.13647     -335.32343     -329.61433     -840.31107      8000           0.0074745374 
      5850   403.08099     -334.77355     -329.61543     -261.13872      8000           0.0079553538 
      5860   394.35331     -334.67652     -329.63008      181.08452      8000           0.0089597785 
      5870   382.18021     -334.55374     -329.66307     -11.40899       8000           0.0090711481 
      5880   442.71016     -335.39576     -329.7305      -950.9839       8000           0.0079510706 
      5890   414.32208     -335.06085     -329.75888     -1026.6862      8000           0.0092234617 
      5900   387.82467     -334.71632     -329.75343     -848.90645      8000           0.0082230304 
      5910   358.12446     -334.32171     -329.73888      32.236106      8000           0.0064772821 
      5920   332.21945     -334.00172     -329.75039      861.82414      8000           0.0074374817 
      5930   384.85167     -334.70411     -329.77926      531.43193      8000           0.0099165226 
      5940   373.55793     -334.57429     -329.79396      686.79586      8000           0.0072521905 
      5950   419.01921     -335.13736     -329.77528      862.60496      8000           0.0076376393 
      5960   410.447       -334.97922     -329.72683      1380.7456      8000           0.0071582257 
      5970   413.33998     -335.00676     -329.71735      1522.4013      8000           0.006308324  
      5980   430.00501     -335.22677     -329.7241       584.35539      8000           0.0068756796 
      5990   393.84772     -334.76385     -329.72387     -33.551343      8000           0.0067496818 
      6000   406.30208     -334.92599     -329.72664     -674.68229      8000           0.0070178716 
      6010   371.2814      -334.48089     -329.72969     -1007.4958      8000           0.0068239711 
      6020   401.49771     -334.86507     -329.7272      -669.25205      8000           0.0072574249 
      6030   384.89802     -334.63566     -329.71021     -1086.0329      8000           0.0050116551 
      6040   427.10508     -335.16912     -329.70356     -1595.8286      8000           0.0050871724 
      6050   408.3574      -334.92687     -329.70122     -823.83545      8000           0.0056042941 
      6060   391.73671     -334.6968      -329.68384      3.6160403      8000           0.0052327098 
      6070   390.09946     -334.68012     -329.68811      884.51071      8000           0.0059901943 
      6080   389.01274     -334.67168     -329.69358      629.80062      8000           0.0077314233 
      6090   450.22689     -335.44066     -329.67922     -424.20913      8000           0.0099994816 
      6100   390.99567     -334.66019     -329.65672     -586.78211      8000           0.010734889  
      6110   427.99182     -335.13145     -329.65454     -589.75619      8000           0.008915958  
      6120   371.25054     -334.40952     -329.65872      243.78243      8000           0.011158911  
      6130   404.7616      -334.84746     -329.66783      325.23866      8000           0.013971314  
      6140   423.44449     -335.09877     -329.68006     -68.619096      8000           0.010866649  
      6150   431.41241     -335.20255     -329.68187     -445.64815      8000           0.0068379235 
      6160   472.56128     -335.75226     -329.70501     -811.74672      8000           0.0068881716 
      6170   427.62888     -335.21189     -329.73963     -224.96556      8000           0.0090135994 
      6180   426.00224     -335.23557     -329.78413      304.7269       8000           0.010686796  
      6190   356.50051     -334.37639     -329.81434      496.29574      8000           0.0085856522 
      6200   380.08335     -334.73415     -329.87031      69.565276      8000           0.0064303115 
      6210   409.27613     -335.19205     -329.95464     -553.6705       8000           0.0054184393 
      6220   437.20141     -335.63023     -330.03547     -862.14181      8000           0.0070886336 
      6230   418.64564     -335.46495     -330.10765     -551.87158      8000           0.0072133049 
      6240   373.485       -334.95727     -330.17788     -465.01176      8000           0.0067603002 
      6250   356.99433     -334.79836     -330.22999     -354.86966      8000           0.007094042  
      6260   352.50273     -334.81499     -330.3041      -624.07531      8000           0.0075134037 
      6270   419.85354     -335.77726     -330.4045      -1267.0492      8000           0.0056737398 
      6280   391.37841     -335.49506     -330.48669     -752.00422      8000           0.0060407742 
      6290   390.56879     -335.52866     -330.53064     -973.21242      8000           0.0058594065 
      6300   350.07777     -335.02602     -330.54616     -902.14394      8000           0.0064016838 
      6310   351.58574     -335.09286     -330.5937      -539.68776      8000           0.0052683015 
      6320   380.41695     -335.52462     -330.65652     -423.72247      8000           0.0052711508 
      6330   377.23979     -335.53106     -330.70362      516.96367      8000           0.0064387486 
      6340   406.33272     -335.93937     -330.73963      969.08578      8000           0.0065745916 
      6350   386.05297     -335.70839     -330.76817      941.21492      8000           0.0056086309 
      6360   372.89933     -335.55544     -330.78354      505.32638      8000           0.0063910977 
      6370   347.31467     -335.24281     -330.79831     -284.0071       8000           0.0064256585 
      6380   363.5624      -335.47149     -330.81907     -520.38167      8000           0.0068917629 
      6390   350.4583      -335.2977      -330.81297     -1031.4955      8000           0.007270653  
      6400   346.98283     -335.23769     -330.79743     -1394.699       8000           0.0070415337 
      6410   359.22752     -335.38219     -330.78525     -987.71197      8000           0.0070189685 
      6420   368.98775     -335.49612     -330.77427     -450.10208      8000           0.0073030947 
      6430   386.10532     -335.65647     -330.71557      381.18222      8000           0.0082061289 
      6440   329.18703     -334.83307     -330.62054      1382.2977      8000           0.0081371607 
      6450   371.35537     -335.31093     -330.55878      1239.6852      8000           0.0070609444 
      6460   396.23348     -335.55937     -330.48886      880.08442      8000           0.0074743749 
      6470   396.42059     -335.45393     -330.38103      284.20743      8000           0.010836565  
      6480   403.2279      -335.40785     -330.24785      168.27554      8000           0.012932     
      6490   361.86033     -334.73435     -330.10372      806.03509      8000           0.010094439  
      6500   398.80695     -335.09105     -329.98762      598.16057      8000           0.012108169  
      6510   389.24348     -334.84943     -329.86837      704.82997      8000           0.0073356445 
      6520   430.38559     -335.28441     -329.77687      391.3489       8000           0.0067661214 
      6530   435.4184      -335.24372     -329.67178      358.19373      8000           0.0058968943 
      6540   417.10969     -334.89931     -329.56166      769.10297      8000           0.0067022603 
      6550   404.245       -334.66785     -329.49483      717.1836       8000           0.0076426108 
      6560   408.9695      -334.68033     -329.44685      706.05644      8000           0.0067692612 
      6570   422.51596     -334.82347     -329.41664      761.92522      8000           0.0064796059 
      6580   415.66193     -334.69736     -329.37823      1098.889       8000           0.0064553706 
      6590   431.43607     -334.86919     -329.34821      1188.8018      8000           0.0070853569 
      6600   405.13951     -334.51512     -329.33065      714.19332      8000           0.0064248946 
      6610   411.88701     -334.58996     -329.31914      140.71346      8000           0.0082908904 
      6620   400.65868     -334.43214     -329.305       -209.17665      8000           0.01058932   
      6630   387.20291     -334.25881     -329.30387     -216.08869      8000           0.010999055  
      6640   428.47056     -334.79398     -329.31095     -260.73924      8000           0.013868963  
      6650   427.31151     -334.78081     -329.31261     -619.86109      8000           0.010629334  
      6660   443.73671     -334.99023     -329.31184     -596.52472      8000           0.0072812052 
      6670   442.25794     -334.99382     -329.33435     -180.52735      8000           0.0083643153 
      6680   416.58837     -334.68464     -329.35366      642.94532      8000           0.006129277  
      6690   421.38983     -334.76167     -329.36925      1622.1065      8000           0.0065443494 
      6700   413.68457     -334.70208     -329.40826      2178.747       8000           0.0057167442 
      6710   430.96875     -334.99313     -329.47813      1815.4565      8000           0.005632239  
      6720   457.38221     -335.40243     -329.54942      925.36723      8000           0.0069225632 
      6730   454.06466     -335.41791     -329.60735      303.17304      8000           0.0053514786 
      6740   411.63046     -334.93345     -329.66592      452.66558      8000           0.0070170989 
      6750   401.82539     -334.87269     -329.73063      15.310953      8000           0.010339547  
      6760   355.39931     -334.34687     -329.79891     -674.60923      8000           0.010482968  
      6770   391.17986     -334.88467     -329.87884     -1370.362       8000           0.010222594  
      6780   417.06348     -335.29388     -329.95682     -1652.3683      8000           0.0085746941 
      6790   410.17336     -335.26773     -330.01885     -1107.1228      8000           0.008599213  
      6800   431.832       -335.60909     -330.08304     -418.99079      8000           0.0078193807 
      6810   380.76891     -335.0178      -330.14519     -35.846303      8000           0.0084192184 
      6820   367.49088     -334.89734     -330.19465     -12.818542      8000           0.011910519  
      6830   363.48709     -334.88178     -330.23032     -157.46694      8000           0.0089694303 
      6840   373.48873     -335.04995     -330.27051      21.243898      8000           0.0087658666 
      6850   407.61856     -335.53131     -330.31512     -144.08525      8000           0.00730343   
      6860   397.42465     -335.43154     -330.34579     -795.50067      8000           0.0078338419 
      6870   356.63294     -334.91852     -330.35478     -1147.0608      8000           0.0075579848 
      6880   367.9749      -335.07245     -330.36357     -1405.6876      8000           0.0088958741 
      6890   356.58603     -334.93736     -330.37422     -1088.1405      8000           0.0085476885 
      6900   373.26878     -335.14274     -330.36611     -181.76199      8000           0.0086262891 
      6910   402.3034      -335.50411     -330.35593     -140.18284      8000           0.0080807728 
      6920   386.58583     -335.29824     -330.3512      -228.5629       8000           0.0079734388 
      6930   394.35797     -335.39747     -330.35097     -402.13627      8000           0.0088053801 
      6940   357.70125     -334.89312     -330.3157      -76.711462      8000           0.011895155  
      6950   341.20163     -334.64415     -330.27787      910.77629      8000           0.0082495774 
      6960   376.03337     -335.06673     -330.25472      486.02568      8000           0.0094741997 
      6970   380.48715     -335.10012     -330.23112     -183.18297      8000           0.011311958  
      6980   415.61452     -335.52166     -330.20314     -740.47927      8000           0.0085976241 
      6990   405.65178     -335.34453     -330.1535      -1184.4637      8000           0.008516304  
      7000   404.40512     -335.29503     -330.11996     -473.39179      8000           0.0083478534 
      7010   405.59795     -335.29482     -330.10449      37.640246      8000           0.0074210761 
      7020   405.03381     -335.27286     -330.08974      84.485546      8000           0.0056371337 
      7030   395.14659     -335.12959     -330.07299      14.915265      8000           0.0069728488 
      7040   429.01018     -335.56861     -330.07867     -620.55269      8000           0.0078771465 
      7050   426.63978     -335.53415     -330.07455      81.846667      8000           0.010002045  
      7060   400.26881     -335.19242     -330.07028      709.89006      8000           0.0089985179 
      7070   383.4904      -334.97155     -330.06412      760.46312      8000           0.0081075052 
      7080   340.47639     -334.40899     -330.052        1170.8246      8000           0.00661147   
      7090   372.6507      -334.82827     -330.05955      737.29597      8000           0.0064099706 
      7100   384.66926     -334.96998     -330.04746      652.77441      8000           0.0063361046 
      7110   395.11276     -335.07079     -330.01463      998.45126      8000           0.0059155219 
      7120   410.29678     -335.24039     -329.98992      394.74034      8000           0.0066585432 
      7130   412.93751     -335.25809     -329.97383     -434.53389      8000           0.0068103636 
      7140   397.07839     -335.03463     -329.95332     -1242.7582      8000           0.0077407207 
      7150   370.32046     -334.67759     -329.93869     -1290.9967      8000           0.0078183326 
      7160   372.89842     -334.69699     -329.9251      -274.66938      8000           0.0071601489 
      7170   385.91856     -334.84717     -329.90867     -157.72244      8000           0.0074763031 
      7180   435.94369     -335.48318     -329.90451     -380.07247      8000           0.0062670165 
      7190   407.22787     -335.09234     -329.88114     -331.14251      8000           0.006475208  
      7200   389.49922     -334.82241     -329.83809     -325.22928      8000           0.0052903501 
      7210   386.58979     -334.75517     -329.80807      748.06183      8000           0.0052688032 
      7220   389.68003     -334.78801     -329.80137      1415.2255      8000           0.0074607229 
      7230   433.71922     -335.34778     -329.79758      1340.3826      8000           0.0086401478 
      7240   389.1265      -334.75568     -329.77613      846.13807      8000           0.0071484239 
      7250   400.5723      -334.88928     -329.76326     -131.83239      8000           0.008284928  
      7260   407.26936     -334.95482     -329.7431       83.53706       8000           0.0078878079 
      7270   451.57159     -335.52918     -329.75053      437.29015      8000           0.0076432669 
      7280   429.34079     -335.23682     -329.74265      298.77455      8000           0.0074455075 
      7290   387.62777     -334.68011     -329.71973     -396.10664      8000           0.0072692489 
      7300   378.03619     -334.56791     -329.73027     -1770.2596      8000           0.0064930468 
      7310   384.55911     -334.66596     -329.74485     -2085.8289      8000           0.0071014386 
      7320   429.97493     -335.24726     -329.74497     -1720.6652      8000           0.0079996084 
      7330   376.38752     -334.54863     -329.73209     -991.38898      8000           0.0075259582 
      7340   401.79107     -334.8746      -329.73298     -434.04671      8000           0.0068353946 
      7350   386.8383      -334.68103     -329.73075     -812.29158      8000           0.0063235442 
      7360   413.36974     -335.01345     -329.72366     -512.73159      8000           0.0059948129 
      7370   428.0029      -335.21153     -329.73448      331.71742      8000           0.006484099  
      7380   401.1969      -334.87118     -329.73716      967.69955      8000           0.0071743181 
      7390   445.21633     -335.44426     -329.74694      691.71009      8000           0.0067495699 
      7400   389.14108     -334.73359     -329.75384     -395.70321      8000           0.0079929527 
      7410   377.15301     -334.58865     -329.76232     -867.55111      8000           0.0079879823 
      7420   345.31044     -334.18678     -329.76793     -124.2729       8000           0.0081883355 
      7430   386.93448     -334.74411     -329.7926       471.68291      8000           0.0065481992 
      7440   403.39435     -334.97261     -329.81048      1286.1328      8000           0.007001198  
      7450   401.88372     -334.94766     -329.80485      1081.8822      8000           0.0061409634 
      7460   378.67693     -334.6457      -329.79986      578.88403      8000           0.0069698612 
      7470   371.27649     -334.5566      -329.80547      1106.8415      8000           0.0067304378 
      7480   425.18222     -335.24129     -329.80034      1009.6593      8000           0.0062171444 
[...]
     98180   388.0949      -335.42537     -330.45901      108.11034      8000           0.0060027085 
     98190   413.62874     -335.6923      -330.39919      442.16352      8000           0.0063195744 
     98200   407.93627     -335.56534     -330.34508      736.81662      8000           0.0065700723 
     98210   401.11113     -335.41184     -330.27892      560.39694      8000           0.0073857116 
     98220   395.86826     -335.28286     -330.21703     -212.21876      8000           0.0096346298 
     98230   363.63945     -334.81973     -330.16633     -1071.3558      8000           0.010049826  
     98240   399.86629     -335.2357      -330.11871     -1562.7778      8000           0.0094880122 
     98250   398.64773     -335.17068     -330.06929     -1083.4432      8000           0.010624055  
     98260   402.76933     -335.19079     -330.03665     -134.44606      8000           0.0094978529 
     98270   390.22946     -334.99772     -330.00405      820.87448      8000           0.0083160617 
     98280   359.46968     -334.54873     -329.94868      1219.2321      8000           0.0087246924 
     98290   378.06924     -334.74312     -329.90506      1011.4392      8000           0.0081048127 
     98300   414.12662     -335.18533     -329.88585      730.49922      8000           0.0087074616 
     98310   425.99654     -335.30302     -329.85165      309.86176      8000           0.0096434424 
     98320   415.64462     -335.12756     -329.80866      9.0748103      8000           0.009872615  
     98330   390.7403      -334.77929     -329.77908     -175.73496      8000           0.011464668  
     98340   372.85401     -334.52345     -329.75213     -179.87896      8000           0.012871582  
     98350   397.67828     -334.81113     -329.72214      54.13293       8000           0.012208395  
     98360   399.23466     -334.79558     -329.68667      487.36194      8000           0.0085905452 
     98370   417.90006     -335.02542     -329.67765      976.79754      8000           0.012097562  
     98380   429.519       -335.19846     -329.70201      1097.4644      8000           0.016611772  
     98390   431.75821     -335.23713     -329.71203      1060.475       8000           0.032734068  
     98400   417.44057     -335.03467     -329.69278      1187.7005      8000           0.02876067   
     98410   379.65701     -334.51833     -329.65996      1029.0801      8000           0.022555413  
     98420   394.29219     -334.71209     -329.66643      411.80967      8000           0.012729968  
     98430   445.1053      -335.38122     -329.68532     -616.36968      8000           0.0069767503 
     98440   471.10339     -335.73863     -329.71003     -775.11051      8000           0.00785523   
     98450   434.73047     -335.30249     -329.73935     -280.32307      8000           0.0079278218 
     98460   432.51632     -335.29354     -329.75874     -144.44185      8000           0.010113405  
     98470   370.47983     -334.50171     -329.76077      313.12329      8000           0.011248077  
     98480   398.62637     -334.91951     -329.81839      72.311828      8000           0.01064809   
     98490   411.01385     -335.14322     -329.88358     -199.26667      8000           0.0074986765 
     98500   409.6619      -335.14612     -329.90377     -560.0707       8000           0.0075974613 
     98510   415.16803     -335.23002     -329.91722     -1082.3036      8000           0.0070569404 
     98520   388.01586     -334.90297     -329.93762     -1445.8411      8000           0.0077353144 
     98530   363.62412     -334.61094     -329.95773     -1454.986       8000           0.0089276009 
     98540   338.32086     -334.29766     -329.96825     -1138.4987      8000           0.0091163012 
     98550   370.22575     -334.72912     -329.99143     -586.84159      8000           0.0084573275 
     98560   396.19457     -335.06838     -329.99837     -193.6438       8000           0.0091405018 
     98570   440.62279     -335.62265     -329.98411     -414.42235      8000           0.010807431  
     98580   405.65323     -335.16956     -329.97851     -356.44361      8000           0.012165611  
     98590   387.34288     -334.9374      -329.98067     -473.2492       8000           0.01467674   
     98600   373.87838     -334.74332     -329.95889     -412.55666      8000           0.01426493   
     98610   355.16773     -334.49724     -329.95224     -364.04466      8000           0.011820702  
     98620   395.81401     -335.02044     -329.95531     -823.99916      8000           0.015868075  
     98630   385.92725     -334.88188     -329.94326     -1020.0129      8000           0.019321352  
     98640   409.94499     -335.17967     -329.9337      -986.3445       8000           0.022894643  
     98650   381.81487     -334.78344     -329.89745     -283.00665      8000           0.019823693  
     98660   355.42335     -334.38846     -329.84019      1301.957       8000           0.015364194  
     98670   343.9015      -334.18367     -329.78285      1967.9098      8000           0.015036028  
     98680   396.43319     -334.80959     -329.73653      1813.2803      8000           0.015239698  
     98690   436.17239     -335.25268     -329.67109      790.73494      8000           0.018125012  
     98700   446.651       -335.2891      -329.57342     -197.74204      8000           0.018193023  
     98710   424.58722     -334.87939     -329.44605     -555.01115      8000           0.018168008  
     98720   362.71439     -333.92297     -329.2814      -554.22459      8000           0.017338425  
     98730   388.73931     -334.09647     -329.12187     -877.06566      8000           0.01778762   
     98740   388.3727      -333.9247      -328.95479     -855.04484      8000           0.015995608  
     98750   413.53731     -334.05631     -328.76438     -738.51697      8000           0.015366104  
     98760   433.08378     -334.12459     -328.58252      31.564055      8000           0.015341967  
     98770   444.76151     -334.10365     -328.41214      1261.6982      8000           0.013064632  
     98780   452.86695     -334.07749     -328.28227      1699.9799      8000           0.013227799  
     98790   395.87708     -333.22721     -328.16127      1465.2157      8000           0.010638103  
     98800   384.45933     -333.00768     -328.08785      1082.8499      8000           0.011736023  
     98810   422.4423      -333.46839     -328.0625       926.72526      8000           0.011708009  
     98820   492.17315     -334.33666     -328.03845      1250.8543      8000           0.0098846342 
     98830   476.81502     -334.09942     -327.99773      1479.5106      8000           0.0097152954 
     98840   442.39917     -333.63994     -327.97866      1161.096       8000           0.0088030398 
     98850   453.53234     -333.80059     -327.99685      429.61759      8000           0.0091242153 
     98860   438.1527      -333.67924     -328.0723       51.261601      8000           0.0098352254 
     98870   458.13674     -334.00147     -328.13881     -96.991286      8000           0.012465991  
     98880   428.35654     -333.65324     -328.17167     -377.36509      8000           0.012417851  
     98890   402.44475     -333.34529     -328.1953      -1138.9784      8000           0.010398222  
     98900   408.23124     -333.45765     -328.23362     -2066.802       8000           0.0080142184 
     98910   418.1663      -333.65145     -328.30028     -2021.7643      8000           0.0070668316 
     98920   441.25085     -334.04158     -328.395       -1203.1035      8000           0.006438989  
     98930   472.26615     -334.53518     -328.49171     -156.91604      8000           0.0058871807 
     98940   472.60921     -334.6375      -328.58963      406.90778      8000           0.0063040225 
     98950   450.00916     -334.43641     -328.67776      714.95121      8000           0.0058282315 
     98960   487.07486     -335.04016     -328.80719      371.13388      8000           0.0063118006 
     98970   480.83167     -335.1338      -328.98071      367.26014      8000           0.0062694242 
     98980   485.05132     -335.35302     -329.14594      572.16891      8000           0.0075622089 
     98990   431.28302     -334.81529     -329.29627      311.47265      8000           0.0093895157 
     99000   381.56982     -334.31031     -329.42746     -29.075576      8000           0.01390619   
     99010   384.28885     -334.44464     -329.52699     -507.98754      8000           0.012681623  
     99020   369.9086      -334.34205     -329.60842     -38.276782      8000           0.015959268  
     99030   398.0868      -334.74961     -329.6554       1043.3003      8000           0.009454624  
     99040   420.48901     -335.08359     -329.7027       1113.6588      8000           0.0053518472 
     99050   422.76704     -335.19017     -329.78012      924.01868      8000           0.0067417932 
     99060   412.89339     -335.12491     -329.84121      528.29219      8000           0.0058724694 
     99070   389.20531     -334.85885     -329.87829     -46.624239      8000           0.0070354369 
     99080   355.3037      -334.45326     -329.90652      256.67968      8000           0.0081784971 
     99090   376.05485     -334.75786     -329.94558     -210.61029      8000           0.0074103205 
     99100   385.80903     -334.91187     -329.97476     -722.56626      8000           0.0068938291 
     99110   392.93261     -335.02494     -329.99668     -1166.2807      8000           0.005891019  
     99120   400.18608     -335.13671     -330.01563     -1474.5492      8000           0.0065694424 
     99130   367.0053      -334.71868     -330.0222      -709.34712      8000           0.0065208732 
     99140   370.62228     -334.7802      -330.03743     -629.52156      8000           0.0069626226 
     99150   393.62688     -335.10266     -330.06551     -1518.5171      8000           0.0074429834 
     99160   390.07424     -335.0543      -330.06262     -2166.0525      8000           0.0086200465 
     99170   396.12275     -335.11118     -330.04209     -2652.8233      8000           0.0077228411 
     99180   384.09019     -334.94561     -330.0305      -1678.5866      8000           0.0075505704 
     99190   404.3994      -335.21978     -330.04478     -192.18158      8000           0.0092204193 
     99200   421.85102     -335.44708     -330.04876      479.23316      8000           0.0066179068 
     99210   404.58845     -335.22632     -330.0489       1070.6162      8000           0.00875352   
     99220   412.23467     -335.3211      -330.04583      971.40674      8000           0.0083332081 
     99230   408.77764     -335.28464     -330.05361      1400.5712      8000           0.0084286271 
     99240   428.04615     -335.55019     -330.07259      1966.214       8000           0.0076085194 
     99250   417.4755      -335.43629     -330.09396      1107.763       8000           0.006632951  
     99260   401.39565     -335.25969     -330.12313      172.30998      8000           0.008357079  
     99270   391.56405     -335.16511     -330.15436     -649.62916      8000           0.0078703516 
     99280   384.23524     -335.09227     -330.17531     -818.21785      8000           0.0058575324 
     99290   386.51056     -335.13991     -330.19383      124.63219      8000           0.0054995285 
     99300   371.75476     -334.97546     -330.21821      452.08573      8000           0.0060938722 
     99310   385.12438     -335.1731      -330.24476      837.91108      8000           0.0060639395 
     99320   382.34161     -335.15807     -330.26534      877.82969      8000           0.0061086718 
     99330   419.72117     -335.67647     -330.3054       597.72192      8000           0.0063886656 
     99340   390.31787     -335.31563     -330.32083      1702.7578      8000           0.0068163493 
     99350   357.60907     -334.87408     -330.29785      1928.5002      8000           0.0070677601 
     99360   358.53225     -334.88414     -330.29609      1475.0971      8000           0.0090379708 
     99370   374.74657     -335.13608     -330.34054      907.13762      8000           0.010496758  
     99380   413.96592     -335.64961     -330.35219      286.51909      8000           0.00756009   
     99390   377.71402     -335.16387     -330.33036      892.18126      8000           0.0073534499 
     99400   362.61451     -334.95474     -330.31445      1161.4523      8000           0.0066771269 
     99410   345.658       -334.70989     -330.28659      808.8783       8000           0.0068829884 
     99420   350.07905     -334.73557     -330.2557       112.82055      8000           0.00690579   
     99430   378.9154      -335.07397     -330.22508     -1212.2419      8000           0.006057669  
     99440   393.78508     -335.20742     -330.16825     -1485.0683      8000           0.0058793215 
     99450   408.39947     -335.31918     -330.09299     -1245.8312      8000           0.0057662988 
     99460   387.82352     -334.9577      -329.99481     -1346.1027      8000           0.0056093752 
     99470   406.99305     -335.1133      -329.90511     -1199.774       8000           0.0065142209 
     99480   389.90528     -334.80956     -329.82004     -1014.5256      8000           0.0062625159 
     99490   418.65247     -335.07452     -329.71713     -217.79809      8000           0.0054250809 
     99500   406.66383     -334.82251     -329.61853      1106.9582      8000           0.005112508  
     99510   414.68647     -334.84316     -329.53652      1311.0242      8000           0.0064695299 
     99520   452.37159     -335.25237     -329.46348      1036.8886      8000           0.0062745334 
     99530   411.76895     -334.64531     -329.376        149.2839       8000           0.0080405002 
     99540   422.24068     -334.69905     -329.29574     -757.35589      8000           0.012278526  
     99550   410.25789     -334.49552     -329.24555     -483.80372      8000           0.018059419  
     99560   434.10727     -334.74348     -329.18832     -649.86604      8000           0.014809785  
     99570   431.00759     -334.65327     -329.13777     -881.27687      8000           0.01932848   
     99580   433.64312     -334.67108     -329.12186     -1116.399       8000           0.015377156  
     99590   438.96426     -334.71557     -329.09825     -896.18235      8000           0.013206206  
     99600   427.09548     -334.54258     -329.07715      231.60965      8000           0.0092219177 
     99610   419.71967     -334.45372     -329.08267      700.44588      8000           0.0072347849 
     99620   406.83384     -334.32233     -329.11618      338.64979      8000           0.0080781158 
     99630   417.87911     -334.47446     -329.12697     -869.89215      8000           0.010028202  
     99640   384.74827     -334.01736     -329.09383     -2011.5364      8000           0.010316932  
     99650   431.05284     -334.61156     -329.09548     -2230.6482      8000           0.0090080624 
     99660   424.68513     -334.56454     -329.12995     -1665.3175      8000           0.0093450945 
     99670   439.78253     -334.79831     -329.17052     -1361.9101      8000           0.0093843878 
     99680   433.7746      -334.75864     -329.20773     -1444.8608      8000           0.0080885384 
     99690   390.86103     -334.24339     -329.24164     -1331.3306      8000           0.0060363279 
     99700   431.25227     -334.81562     -329.29699     -560.82203      8000           0.0073194881 
     99710   427.18517     -334.85694     -329.39036      335.58475      8000           0.0068763064 
     99720   435.01037     -335.06073     -329.49401      812.09088      8000           0.0098946006 
     99730   428.03281     -335.07149     -329.59406      458.92897      8000           0.0090557652 
     99740   396.83766     -334.79373     -329.7155      -503.60568      8000           0.0075623707 
     99750   384.03731     -334.76061     -329.84618     -696.66129      8000           0.0091180804 
     99760   359.65443     -334.57887     -329.97646     -192.13259      8000           0.0069252544 
     99770   385.70008     -335.05654     -330.12083      375.02075      8000           0.0075337877 
     99780   398.76615     -335.34896     -330.24604      322.05156      8000           0.0057636757 
     99790   421.86685     -335.74409     -330.34556     -144.86922      8000           0.0055303606 
     99800   387.32104     -335.39469     -330.43823      496.50856      8000           0.006310111  
     99810   398.95642     -335.64717     -330.54182      1434.9315      8000           0.0064062537 
     99820   405.38204     -335.82366     -330.63608      1771.895       8000           0.0062549551 
     99830   394.19905     -335.74482     -330.70035      1256.4095      8000           0.0097947893 
     99840   398.77753     -335.85249     -330.74943     -245.66495      8000           0.0085790849 
     99850   344.85059     -335.19657     -330.7836      -940.82032      8000           0.010031744  
     99860   359.21564     -335.40494     -330.80814     -825.20204      8000           0.0069583882 
     99870   342.38562     -335.19044     -330.80901      335.71871      8000           0.0074403859 
     99880   339.74033     -335.15391     -330.80634      1223.9231      8000           0.0083429963 
     99890   361.99843     -335.44822     -330.81581      1255.7674      8000           0.0093945947 
     99900   364.79541     -335.46503     -330.79684      1236.6665      8000           0.0098478772 
     99910   376.85901     -335.58114     -330.75857      1593.548       8000           0.0098046795 
     99920   370.91454     -335.45724     -330.71074      1505.5988      8000           0.0084507704 
     99930   360.95731     -335.28508     -330.66599      794.94983      8000           0.00739849   
     99940   327.66335     -334.81469     -330.62166     -385.98913      8000           0.0084865954 
     99950   325.08364     -334.73286     -330.57285     -1398.4886      8000           0.010030999  
     99960   333.83226     -334.79572     -330.52375     -938.28161      8000           0.012045485  
     99970   378.99564     -335.29976     -330.44984      138.95319      8000           0.013086232  
     99980   393.537       -335.37148     -330.33549      1341.1418      8000           0.011656154  
     99990   384.25344     -335.15046     -330.23326      1821.1599      8000           0.011503635  
    100000   421.22949     -335.57606     -330.18569      1255.3325      8000           0.0092094877 
    100003   394.11951     -335.21695     -330.17349     -15.258266      8000           0.008935901  
Loop time of 174848 on 16 procs for 100000 steps with 100 atoms

Performance: 0.049 ns/day, 485.690 hours/ns, 0.572 timesteps/s, 57.192 atom-step/s
1162.6% CPU use with 1 MPI tasks x 16 OpenMP threads

MPI task timing breakdown:
Section |  min time  |  avg time  |  max time  |%varavg| %total
---------------------------------------------------------------
Pair    | 29974      | 29974      | 29974      |   0.0 | 17.14
Neigh   | 0.37778    | 0.37778    | 0.37778    |   0.0 |  0.00
Comm    | 0.51483    | 0.51483    | 0.51483    |   0.0 |  0.00
Output  | 1.4487e+05 | 1.4487e+05 | 1.4487e+05 |   0.0 | 82.86
Modify  | 0.82319    | 0.82319    | 0.82319    |   0.0 |  0.00
Other   |            | 0.3252     |            |       |  0.00

Nlocal:            100 ave         100 max         100 min
Histogram: 1 0 0 0 0 0 0 0 0 0
Nghost:            171 ave         171 max         171 min
Histogram: 1 0 0 0 0 0 0 0 0 0
Neighs:              0 ave           0 max           0 min
Histogram: 1 0 0 0 0 0 0 0 0 0
FullNghs:         3980 ave        3980 max        3980 min
Histogram: 1 0 0 0 0 0 0 0 0 0

Total # of neighbors = 3980
Ave neighs/atom = 39.8
Neighbor list builds = 2689
Dangerous builds = 0

Total wall time: 48:36:36
